  ABINIT 
  
  Give name for formatted input file: 
t41.in
  Give name for formatted output file:
t4x.out
  Give root name for generic input files:
t4xi
  Give root name for generic output files:
t4xo
  Give root name for generic temporary files:
t4x

 isfile : WARNING -
  Finds that output file t4x.out
 already exists.
 new name assigned:t4x.outA

 leave_test : synchronization done...

.Version 7.0.5 of ABINIT 
.(MPI version, prepared for a x86_64_linux_intel13.1 computer) 

.Copyright (C) 1998-2012 ABINIT group . 
 ABINIT comes with ABSOLUTELY NO WARRANTY.
 It is free software, and you are welcome to redistribute it
 under certain conditions (GNU General Public License,
 see ~abinit/COPYING or http://www.gnu.org/copyleft/gpl.txt).

 ABINIT is a project of the Universite Catholique de Louvain,
 Corning Inc. and other collaborators, see ~abinit/doc/developers/contributors.txt .
 Please read ~abinit/doc/users/acknowledgments.html for suggested
 acknowledgments of the ABINIT effort.
 For more information, see http://www.abinit.org .

.Starting date : Wed 13 Mar 2013.
- ( at 18h36 )
  
 
 ++++++++++++++++++++++++++++++++++++++++++++++++++++++++++++++++++++++++++++++
 
 === Build Information === 
  Version       : 7.0.5
  Build target  : x86_64_linux_intel13.1
  Build date    : 20130305
 
 === Compiler Suite === 
  C compiler       : gnu4.7
  CFLAGS           :  -g -O2 -mtune=native -march=native -mfpmath=sse
  C++ compiler     : gnu4.7
  CXXFLAGS         :  -g -O2 -mtune=native -march=native -mfpmath=sse
  Fortran compiler : intel13.1
  FCFLAGS          :  -g -extend-source -vec-report0 -noaltparam -nofpscomp
  FC_LDFLAGS       :    -static-intel -static-libgcc
 
 === Optimizations === 
  Debug level        : basic
  Optimization level : standard
  Architecture       : unknown_unknown
 
 === MPI === 
  Parallel build : yes
  Parallel I/O   : yes
  Time tracing   : no
  GPU support    : no
 
 === Connectors / Fallbacks === 
  Connectors on : yes
  Fallbacks on  : yes
  DFT flavor    : libxc-fallback+atompaw-fallback+bigdft-fallback+wannier90-fallback
  FFT flavor    : none
  LINALG flavor : mkl
  MATH flavor   : none
  TIMER flavor  : abinit
  TRIO flavor   : netcdf-fallback+etsf_io-fallback
 
 === Experimental features === 
  Bindings            : no
  Exports             : no
  GW double-precision : no
 
 ++++++++++++++++++++++++++++++++++++++++++++++++++++++++++++++++++++++++++++++
 

 ++++++++++++++++++++++++++++++++++++++++++++++++++++++++++++++++++++++++++++++
 Default optimizations:
   -O2 -xHost


 ++++++++++++++++++++++++++++++++++++++++++++++++++++++++++++++++++++++++++++++


 ++++++++++++++++++++++++++++++++++++++++++++++++++++++++++++++++++++++++++++++
 CPP options activated during the build:

                    CC_GNU                   CXX_GNU                  FC_INTEL

          HAVE_DFT_ATOMPAW           HAVE_DFT_BIGDFT            HAVE_DFT_LIBXC

        HAVE_DFT_WANNIER90 HAVE_FC_ALLOCATABLE_DT...           HAVE_FC_CPUTIME

              HAVE_FC_EXIT             HAVE_FC_GAMMA     HAVE_FC_ISO_C_BINDING

        HAVE_FC_LONG_LINES              HAVE_FC_NULL         HAVE_FC_STREAM_IO

               HAVE_LINALG        HAVE_LINALG_SERIAL                  HAVE_MPI

                 HAVE_MPI2               HAVE_MPI_IO HAVE_MPI_TYPE_CREATE_S...

             HAVE_OS_LINUX                HAVE_TIMER         HAVE_TIMER_ABINIT

            HAVE_TIMER_MPI         HAVE_TIMER_SERIAL         HAVE_TRIO_ETSF_IO

          HAVE_TRIO_NETCDF
 ++++++++++++++++++++++++++++++++++++++++++++++++++++++++++++++++++++++++++++++

- input  file    -> t41.in
- output file    -> t4x.outA
- root for input  files -> t4xi
- root for output files -> t4xo

-instrng :    68 lines of input have been read from file t41.in


 iofn2 : Please give name of formatted atomic psp file
 iofn2 : for atom type   1 , psp file is 13al.981214.fhi
  read the values zionpsp=  3.0 , pspcod=   6 , lmax=   2

 inpspheads : deduce mpsang  =   3, n1xccc  =   0.
 leave_test : synchronization done...

 invars1m : enter jdtset=     0
 invars1 : treat image number     1

 symlatt : the Bravais lattice is cF (face-centered cubic)
  xred   is defined in input file
 ingeo : takes atomic coordinates from input array xred
 ingeo : WARNING -
 Because icoulomb is 1, the average center of coordinates of the system has been translated to (0.5,0.5,0.5)

 symlatt : the Bravais lattice is cF (face-centered cubic)

 symlatt : the Bravais lattice is cF (face-centered cubic)

 symbrav : COMMENT -
  The Bravais lattice determined only from the primitive
  vectors, bravais(1)=  7, is more symmetric
  than the real one, iholohedry=  1, obtained by taking into
  account the atomic positions. Start deforming the primitive vector set.

 symlatt : the Bravais lattice is hR (rhombohedral)

 symbrav : COMMENT -
  The Bravais lattice determined from modified primitive
  vectors, bravais(1)=  5, has a lower symmetry than before,
  but is still more symmetric than the real one, iholohedry=  1
  obtained by taking into account the atomic positions.

 symlatt : the Bravais lattice is mC (one-face-centered monoclinic)

 symbrav : COMMENT -
  The Bravais lattice determined from modified primitive
  vectors, bravais(1)=  2, has a lower symmetry than before,
  but is still more symmetric than the real one, iholohedry=  1
  obtained by taking into account the atomic positions.

 symlatt : the Bravais lattice is aP (primitive triclinic)
 symspgr : the symmetry operation no.   1 is the identity
 symspgr : spgroup=   1  P1   (=C1^1)
 getkgrid : length of smallest supercell vector (bohr)=    1.520000E+01
       Simple Lattice Grid
 invars2: take the default value of fband=  5.00000000E-01
 getkgrid : length of smallest supercell vector (bohr)=    1.520000E+01
       Simple Lattice Grid
  dtset%nelect=   3.00000000000000     
 chkneu : initialized the occupation numbers for occopt=    4
    spin-unpolarized case :
  2.00  1.00  0.00
  mpi_setup : enter 
 mpi_setup1: mkmem  undefined in the input file. Use default mkmem  = nkpt
 mpi_setup1: With nkpt_me=   16 and mkmem  =    16, ground state wf handled in core.
 mpi_setup1: mkqmem undefined in the input file. Use default mkqmem = nkpt
 mpi_setup1: With nkpt_me=   16 and mkqmem =    16, ground state wf handled in core.
 mpi_setup1: mk1mem undefined in the input file. Use default mk1mem = nkpt
 mpi_setup1: With nkpt_me=   16 and mk1mem =    16, ground state wf handled in core.

 getng.F90:199:WARNING
   The second and third dimension of the FFT grid,    0    0  were imposed to be multiple of the number of processors for the FFT,    1
 For input ecut=  1.600000E+01 best grid ngfft=      20      20      20
       max ecut=  1.708727E+01

 ==== FFT mesh ====
  FFT mesh divisions ........................    20   20   20
  Augmented FFT divisions ...................    21   21   20
  FFT algorithm .............................   112
  FFT cache size ............................    16
 getmpw: optimal value of mpw=     338

 Symmetries : space group P1 (#  1); Bravais aP (primitive triclinic)

 getdim_nloc : deduce lmnmax  =   9, lnmax  =   3,
                      lmnmaxso=   9, lnmaxso=   3.
 setmqgrid : COMMENT -
  The number of points "mqgrid" in reciprocal space used for the
  description of the pseudopotentials has been set automatically
  by abinit to :     3001.
 memory : analysis of memory needs
================================================================================
 Values of the parameters that define the memory need of the present run
   intxc =         0  ionmov =         0    iscf =         7 xclevel =         1
  lmnmax =         3   lnmax =         3   mband =         3  mffmem =         1
P  mgfft =        20   mkmem =        16 mpssoang=         3     mpw =       338
  mqgrid =      3001   natom =         1    nfft =      8000    nkpt =        16
  nloalg =         4  nspden =         1 nspinor =         1  nsppol =         1
    nsym =         1  n1xccc =         0  ntypat =         1  occopt =         4
================================================================================
P This job should need less than                       3.604 Mbytes of memory.
  Rough estimation (10% accuracy) of disk space for files :
  WF disk file :      0.250 Mbytes ; DEN or POT disk file :      0.063 Mbytes.
================================================================================

 Biggest array : f_fftgr(disk), with      0.9786 MBytes.
 leave_test : synchronization done...
 memana : allocated an array of      0.979 Mbytes, for testing purposes.
 memana : allocated       3.604 Mbytes, for testing purposes.
 The job will continue.
--------------------------------------------------------------------------------
------------- Echo of variables that govern the present computation ------------
--------------------------------------------------------------------------------
-
- outvars: echo of selected default values                                      
-   accesswff0 =  0 , fftalg0 =112 , wfoptalg0 =  0
-
- outvars: echo of global parameters not present in the input file              
-  max_nthreads =    0
-
 -outvars: echo values of preprocessed input variables --------
 
 These variables are accessible in NetCDF format (t4xo_OUT.nc)

            acell      7.6000000000E+00  7.6000000000E+00  7.6000000000E+00 Bohr
              amu      2.69815390E+01
             ecut      1.60000000E+01 Hartree
              kpt     -2.50000000E-01  5.00000000E-01  0.00000000E+00
                       5.00000000E-01 -2.50000000E-01  0.00000000E+00
                      -2.50000000E-01 -2.50000000E-01  2.50000000E-01
                      -2.50000000E-01  0.00000000E+00  0.00000000E+00
                      -2.50000000E-01  2.50000000E-01  2.50000000E-01
                       5.00000000E-01  5.00000000E-01  2.50000000E-01
                      -2.50000000E-01  5.00000000E-01  5.00000000E-01
                       0.00000000E+00 -2.50000000E-01  0.00000000E+00
                       2.50000000E-01 -2.50000000E-01  2.50000000E-01
                       5.00000000E-01 -2.50000000E-01  5.00000000E-01
                      -2.50000000E-01 -2.50000000E-01 -2.50000000E-01
                       5.00000000E-01  0.00000000E+00  2.50000000E-01
                      -2.50000000E-01  0.00000000E+00  5.00000000E-01
                       0.00000000E+00  5.00000000E-01  2.50000000E-01
                       0.00000000E+00 -2.50000000E-01  5.00000000E-01
                       0.00000000E+00  0.00000000E+00  2.50000000E-01
         kptrlatt        2   -2    2     -2    2    2     -2   -2    2
          kptrlen      1.52000000E+01
P           mkmem          16
            natom           1
            nband           3
            ngfft          20      20      20
             nkpt          16
            nstep          10
             nsym           1
           ntypat           1
              occ      2.000000  1.000000  0.000000
                       2.000000  1.000000  0.000000
                       2.000000  1.000000  0.000000
                       2.000000  1.000000  0.000000
                       2.000000  1.000000  0.000000
                       2.000000  1.000000  0.000000
                       2.000000  1.000000  0.000000
                       2.000000  1.000000  0.000000
                       2.000000  1.000000  0.000000
                       2.000000  1.000000  0.000000
                       2.000000  1.000000  0.000000
                       2.000000  1.000000  0.000000
                       2.000000  1.000000  0.000000
                       2.000000  1.000000  0.000000
                       2.000000  1.000000  0.000000
                       2.000000  1.000000  0.000000
           occopt           4
            rprim      0.0000000000E+00  5.0000000000E-01  5.0000000000E-01
                       5.0000000000E-01  0.0000000000E+00  5.0000000000E-01
                       5.0000000000E-01  5.0000000000E-01  0.0000000000E+00
           shiftk      5.00000000E-01  5.00000000E-01  5.00000000E-01
          spgroup           1
           toldfe      1.00000000E-08 Hartree
           tsmear      5.00000000E-02 Hartree
            typat      1
              wtk        0.06250    0.06250    0.06250    0.06250    0.06250    0.06250
                         0.06250    0.06250    0.06250    0.06250    0.06250    0.06250
                         0.06250    0.06250    0.06250    0.06250
           xangst      2.0108733926E+00  2.0108733926E+00  2.0108733926E+00
            xcart      3.8000000000E+00  3.8000000000E+00  3.8000000000E+00
             xred      5.0000000000E-01  5.0000000000E-01  5.0000000000E-01
            znucl       13.00000

================================================================================
 leave_test : synchronization done...

 chkinp: machine precision is   2.2204460492503131E-16

 chkinp: Checking input parameters for consistency.
 DATA TYPE INFORMATION: 
 REAL:      Data type name: REAL(DP) 
            Kind value:      8
            Precision:      15
            Smallest nonnegligible quantity relative to 1:  0.22204460E-15
            Smallest positive number:                       0.22250739-307
            Largest representable number:                   0.17976931+309
 INTEGER:   Data type name: INTEGER(default) 
            Kind value: 4
            Bit size:   32
            Largest representable number: 2147483647
 LOGICAL:   Data type name: LOGICAL 
            Kind value: 4
 CHARACTER: Data type name: CHARACTER             Kind value: 1
 ==== OpenMP parallelism is OFF ====
 
  ==== Using MPI-2 specifications ==== 
  MPI-IO support is ON
  xmpi_tag_ub ................   2147483647
  xmpi_bsize_ch ..............            1
  xmpi_bsize_int .............            4
  xmpi_bsize_sp ..............            4
  xmpi_bsize_dp ..............            8
  xmpi_bsize_spc .............            8
  xmpi_bsize_dpc .............           16
  xmpio_bsize_frm ............            4
  xmpi_address_kind ..........            8
  xmpi_offset_kind ...........            8
  MPI_WTICK ..................   1.000000000000000E-006
 ==== OpenMP parallelism is OFF ====
 

================================================================================
== DATASET  1 ==================================================================
-   nproc =    1

 setmqgrid : COMMENT -
  The number of points "mqgrid" in reciprocal space used for the
  description of the pseudopotentials has been set automatically
  by abinit to :     3001.

 getdim_nloc : deduce lmnmax  =   9, lnmax  =   3,
                      lmnmaxso=   9, lnmaxso=   3.
 Exchange-correlation functional for the present dataset will be:
  LDA: new Teter (4/93) with spin-polarized option - ixc=1
 Citation for XC functional:
  S. Goedecker, M. Teter, J. Huetter, PRB 54, 1703 (1996)
 
 Unit cell volume ucvol=  1.0974400E+02 bohr^3
 Angles (23,13,12)=  6.00000000E+01  6.00000000E+01  6.00000000E+01 degrees

 getcut: wavevector=  0.0000  0.0000  0.0000  ngfft=  20  20  20
         ecut(hartree)=     16.000   => boxcut(ratio)=   2.06684
- pspini: atom type   1  psp file is 13al.981214.fhi
- pspatm: opening atomic psp file    13al.981214.fhi
- Aluminum, fhi98PP : Hamann-type, LDA CA PerdewWang, l=2 local
- 13.00000   3.00000    981214                znucl, zion, pspdat
    6    7    2    2       493   0.00000      pspcod,pspxc,lmax,lloc,mmax,r2well

 pspatm: WARNING -
  Pseudopotential file pspxc=       7,
  not equal to input ixc=       1.
  These parameters must agree to get the same xc 
  in ABINIT code as in psp construction.
  Action : check psp design or input file.
  Assume experienced user. Execution will continue.

  No XC core correction.
  1.024700          amesh (Hamman grid)
 pspatm: epsatm=    1.36305739
         --- l  ekb(1:nproj) -->
             0    1.768744
             1    0.900554
 pspatm: atomic psp has been read  and splines computed

   4.08917216E+00                                ecore*ucvol(ha*bohr**3)
 wfconv:     3 bands initialized randomly with npw=   338, for ikpt=     1
 wfconv:     3 bands initialized randomly with npw=   338, for ikpt=     2
 wfconv:     3 bands initialized randomly with npw=   338, for ikpt=     3
 wfconv:     3 bands initialized randomly with npw=   332, for ikpt=     4
 wfconv:     3 bands initialized randomly with npw=   338, for ikpt=     5
 wfconv:     3 bands initialized randomly with npw=   338, for ikpt=     6
 wfconv:     3 bands initialized randomly with npw=   338, for ikpt=     7
 wfconv:     3 bands initialized randomly with npw=   332, for ikpt=     8
 wfconv:     3 bands initialized randomly with npw=   338, for ikpt=     9
 wfconv:     3 bands initialized randomly with npw=   338, for ikpt=    10
 wfconv:     3 bands initialized randomly with npw=   332, for ikpt=    11
 wfconv:     3 bands initialized randomly with npw=   338, for ikpt=    12
 wfconv:     3 bands initialized randomly with npw=   338, for ikpt=    13
 wfconv:     3 bands initialized randomly with npw=   338, for ikpt=    14
 wfconv:     3 bands initialized randomly with npw=   338, for ikpt=    15
 wfconv:     3 bands initialized randomly with npw=   332, for ikpt=    16
 newkpt: loop on k-points done in parallel
 leave_test : synchronization done...
 pareigocc : MPI_ALLREDUCE
 
 setup2: Arith. and geom. avg. npw (full set) are     336.500     336.490
 initro : for itypat=  1, take decay length=      1.2500,
 initro : indeed, coreel=     10.0000, nval=  3 and densty=  0.0000E+00.

================================================================================

 getcut: wavevector=  0.0000  0.0000  0.0000  ngfft=  20  20  20
         ecut(hartree)=     16.000   => boxcut(ratio)=   2.06684

 ewald : nr and ng are    3 and   11

 ITER STEP NUMBER     1
 xc_type           2          
 realspc           0          
 maxNoep         100          
 E-mstep      0.0001          
 acuracy       1.d-9          
 GrIterN          20          
 GrIterD     -1.0             
 NumGr_N          -1          
 NumGr_D    0.000001          
RUNNING THE L-BFGS-B CODE

           * * *

Machine precision = 2.220D-16
 N =         8000     M =            7
 This problem is unconstrained.

At X0         0 variables are exactly at the bounds
 vtorho : nnsclo_now= 50, note that nnsclo,dbl_nnsclo,istep= 50 0  1
 leave_test : synchronization done...
 vtorho: loop on k-points and spins done in parallel
 newocc : new Fermi energy is       0.262580 , with nelect=      3.000000
  Number of bissection calls =  49
 newocc : computed new occ. numbers for occopt=    4 , spin-unpolarized case.
 2.000 1.333 0.000
 2.000 1.333 0.000
 2.000 1.333 0.000
 2.000 0.000 0.000
 2.000 1.333 0.000
 2.000 1.333 0.000
 2.000 1.333 0.000
 2.000 0.000 0.000
 2.000 1.333 0.000
 2.000 1.333 0.000
 2.000 0.000 0.000
 2.000 1.333 0.000
 2.000 1.333 0.000
 2.000 1.333 0.000
 2.000 1.333 0.000
 2.000 0.000 0.000
mkrho: loop on k-points and spins done in parallel
 leave_test : synchronization done...
mkrho: echo density (plane-wave part only)
 Total charge density [el/Bohr^3]
,     Maximum=    3.2429E-02  at reduced coord.    0.6500    0.6000    0.1000
,     Minimum=    3.5562E-03  at reduced coord.    0.5000    0.5000    0.5000
,  Integrated=    3.0000E+00
 Total charge density [el/Bohr^3]
,     Maximum=    3.2429E-02  at reduced coord.    0.6500    0.6000    0.1000
,     Minimum=    3.5562E-03  at reduced coord.    0.5000    0.5000    0.5000
,  Integrated=    3.0000E+00
Psolver_hartree(): compute potential (Vhartree)...
 | dimension:    20    20    20
Psolver_kernel() : building kernel...
 | data dimensions:    20    20    20
 ------------------------------------------------------------ Poisson Kernel Creation
 Poisson solver for periodic BC, no kernel calculation...done.
 Memory occ. per proc. (Bytes):  Density=64000  Kernel=10648
                                 Full Grid Arrays=64000
 PSolver, periodic BC, dimensions:    20   20   20   proc    1  ixc:      0 ... done.
Psolver_hartree(): compute potential (Vhartree)...
 | dimension:    20    20    20
 PSolver, periodic BC, dimensions:    20   20   20   proc    1  ixc:      0 ... done.
Psolver_hartree(): compute potential (Vhartree)...
 | dimension:    20    20    20
 PSolver, periodic BC, dimensions:    20   20   20   proc    1  ixc:      0 ... done.
Psolver_hartree(): compute potential (Vhartree)...
 | dimension:    20    20    20
 PSolver, periodic BC, dimensions:    20   20   20   proc    1  ixc:      0 ... done.
Psolver_hartree(): compute potential (Vhartree)...
 | dimension:    20    20    20
 PSolver, periodic BC, dimensions:    20   20   20   proc    1  ixc:      0 ... done.
Psolver_hartree(): compute potential (Vhartree)...
 | dimension:    20    20    20
 PSolver, periodic BC, dimensions:    20   20   20   proc    1  ixc:      0 ... done.
Psolver_hartree(): compute potential (Vhartree)...
 | dimension:    20    20    20
 PSolver, periodic BC, dimensions:    20   20   20   proc    1  ixc:      0 ... done.
Psolver_hartree(): compute potential (Vhartree)...
 | dimension:    20    20    20
 PSolver, periodic BC, dimensions:    20   20   20   proc    1  ixc:      0 ... done.
Psolver_hartree(): compute potential (Vhartree)...
 | dimension:    20    20    20
 PSolver, periodic BC, dimensions:    20   20   20   proc    1  ixc:      0 ... done.
Psolver_hartree(): compute potential (Vhartree)...
 | dimension:    20    20    20
 PSolver, periodic BC, dimensions:    20   20   20   proc    1  ixc:      0 ... done.
Psolver_hartree(): compute potential (Vhartree)...
 | dimension:    20    20    20
 PSolver, periodic BC, dimensions:    20   20   20   proc    1  ixc:      0 ... done.
Psolver_hartree(): compute potential (Vhartree)...
 | dimension:    20    20    20
 PSolver, periodic BC, dimensions:    20   20   20   proc    1  ixc:      0 ... done.
Psolver_hartree(): compute potential (Vhartree)...
 | dimension:    20    20    20
 PSolver, periodic BC, dimensions:    20   20   20   proc    1  ixc:      0 ... done.
Psolver_hartree(): compute potential (Vhartree)...
 | dimension:    20    20    20
 PSolver, periodic BC, dimensions:    20   20   20   proc    1  ixc:      0 ... done.
Psolver_hartree(): compute potential (Vhartree)...
 | dimension:    20    20    20
 PSolver, periodic BC, dimensions:    20   20   20   proc    1  ixc:      0 ... done.
Psolver_hartree(): compute potential (Vhartree)...
 | dimension:    20    20    20
 PSolver, periodic BC, dimensions:    20   20   20   proc    1  ixc:      0 ... done.
Psolver_hartree(): compute potential (Vhartree)...
 | dimension:    20    20    20
 PSolver, periodic BC, dimensions:    20   20   20   proc    1  ixc:      0 ... done.
Psolver_hartree(): compute potential (Vhartree)...
 | dimension:    20    20    20
 PSolver, periodic BC, dimensions:    20   20   20   proc    1  ixc:      0 ... done.
 ETOT  0  -1.3544990652518     0.000E+00 9.210E-11 0.000E+00
 scprqt: <Vxc>= -3.4576732E-01 hartree
 vtorho : nnsclo_now= 50, note that nnsclo,dbl_nnsclo,istep= 50 0  2
 leave_test : synchronization done...
 vtorho: loop on k-points and spins done in parallel
 newocc : new Fermi energy is       0.262580 , with nelect=      3.000000
  Number of bissection calls =  49
 newocc : computed new occ. numbers for occopt=    4 , spin-unpolarized case.
 2.000 1.333 0.000
 2.000 1.333 0.000
 2.000 1.333 0.000
 2.000 0.000 0.000
 2.000 1.333 0.000
 2.000 1.333 0.000
 2.000 1.333 0.000
 2.000 0.000 0.000
 2.000 1.333 0.000
 2.000 1.333 0.000
 2.000 0.000 0.000
 2.000 1.333 0.000
 2.000 1.333 0.000
 2.000 1.333 0.000
 2.000 1.333 0.000
 2.000 0.000 0.000
mkrho: loop on k-points and spins done in parallel
 leave_test : synchronization done...
mkrho: echo density (plane-wave part only)
 Total charge density [el/Bohr^3]
,     Maximum=    3.2429E-02  at reduced coord.    0.6500    0.6000    0.1000
,     Minimum=    3.5562E-03  at reduced coord.    0.5000    0.5000    0.5000
,  Integrated=    3.0000E+00
 Total charge density [el/Bohr^3]
,     Maximum=    3.2429E-02  at reduced coord.    0.6500    0.6000    0.1000
,     Minimum=    3.5562E-03  at reduced coord.    0.5000    0.5000    0.5000
,  Integrated=    3.0000E+00
Psolver_hartree(): compute potential (Vhartree)...
 | dimension:    20    20    20
 PSolver, periodic BC, dimensions:    20   20   20   proc    1  ixc:      0 ... 