  ABINIT 
  
  Give name for formatted input file: 
t11.in
  Give name for formatted output file:
t1x.out
  Give root name for generic input files:
t1xi
  Give root name for generic output files:
t1xo
  Give root name for generic temporary files:
t1x

 isfile : WARNING -
  Finds that output file t1x.out
 already exists.
 new name assigned:t1x.outA


 isfile : WARNING -
  Finds that output file t1x.outA
 already exists.
 new name assigned:t1x.outB


 isfile : WARNING -
  Finds that output file t1x.outB
 already exists.
 new name assigned:t1x.outC


 isfile : WARNING -
  Finds that output file t1x.outC
 already exists.
 new name assigned:t1x.outD


 isfile : WARNING -
  Finds that output file t1x.outD
 already exists.
 new name assigned:t1x.outE


 isfile : WARNING -
  Finds that output file t1x.outE
 already exists.
 new name assigned:t1x.outF


 isfile : WARNING -
  Finds that output file t1x.outF
 already exists.
 new name assigned:t1x.outG


 isfile : WARNING -
  Finds that output file t1x.outG
 already exists.
 new name assigned:t1x.outH


 isfile : WARNING -
  Finds that output file t1x.outH
 already exists.
 new name assigned:t1x.outI


 isfile : WARNING -
  Finds that output file t1x.outI
 already exists.
 new name assigned:t1x.outJ


 isfile : WARNING -
  Finds that output file t1x.outJ
 already exists.
 new name assigned:t1x.outK


 isfile : WARNING -
  Finds that output file t1x.outK
 already exists.
 new name assigned:t1x.outL


 isfile : WARNING -
  Finds that output file t1x.outL
 already exists.
 new name assigned:t1x.outM


 isfile : WARNING -
  Finds that output file t1x.outM
 already exists.
 new name assigned:t1x.outN


 isfile : WARNING -
  Finds that output file t1x.outN
 already exists.
 new name assigned:t1x.outO


 isfile : WARNING -
  Finds that output file t1x.outO
 already exists.
 new name assigned:t1x.outP


 isfile : WARNING -
  Finds that output file t1x.outP
 already exists.
 new name assigned:t1x.outQ


 isfile : WARNING -
  Finds that output file t1x.outQ
 already exists.
 new name assigned:t1x.outR


 isfile : WARNING -
  Finds that output file t1x.outR
 already exists.
 new name assigned:t1x.outS


 isfile : WARNING -
  Finds that output file t1x.outS
 already exists.
 new name assigned:t1x.outT


 isfile : WARNING -
  Finds that output file t1x.outT
 already exists.
 new name assigned:t1x.outU

 leave_test : synchronization done...

.Version 7.0.5 of ABINIT 
.(MPI version, prepared for a x86_64_linux_intel13.1 computer) 

.Copyright (C) 1998-2012 ABINIT group . 
 ABINIT comes with ABSOLUTELY NO WARRANTY.
 It is free software, and you are welcome to redistribute it
 under certain conditions (GNU General Public License,
 see ~abinit/COPYING or http://www.gnu.org/copyleft/gpl.txt).

 ABINIT is a project of the Universite Catholique de Louvain,
 Corning Inc. and other collaborators, see ~abinit/doc/developers/contributors.txt .
 Please read ~abinit/doc/users/acknowledgments.html for suggested
 acknowledgments of the ABINIT effort.
 For more information, see http://www.abinit.org .

.Starting date : Thu  7 Mar 2013.
- ( at 20h39 )
  
 
 ++++++++++++++++++++++++++++++++++++++++++++++++++++++++++++++++++++++++++++++
 
 === Build Information === 
  Version       : 7.0.5
  Build target  : x86_64_linux_intel13.1
  Build date    : 20130305
 
 === Compiler Suite === 
  C compiler       : gnu4.7
  CFLAGS           :  -g -O2 -mtune=native -march=native -mfpmath=sse
  C++ compiler     : gnu4.7
  CXXFLAGS         :  -g -O2 -mtune=native -march=native -mfpmath=sse
  Fortran compiler : intel13.1
  FCFLAGS          :  -g -extend-source -vec-report0 -noaltparam -nofpscomp
  FC_LDFLAGS       :    -static-intel -static-libgcc
 
 === Optimizations === 
  Debug level        : basic
  Optimization level : standard
  Architecture       : unknown_unknown
 
 === MPI === 
  Parallel build : yes
  Parallel I/O   : yes
  Time tracing   : no
  GPU support    : no
 
 === Connectors / Fallbacks === 
  Connectors on : yes
  Fallbacks on  : yes
  DFT flavor    : libxc-fallback+atompaw-fallback+bigdft-fallback+wannier90-fallback
  FFT flavor    : none
  LINALG flavor : mkl
  MATH flavor   : none
  TIMER flavor  : abinit
  TRIO flavor   : netcdf-fallback+etsf_io-fallback
 
 === Experimental features === 
  Bindings            : no
  Exports             : no
  GW double-precision : no
 
 ++++++++++++++++++++++++++++++++++++++++++++++++++++++++++++++++++++++++++++++
 

 ++++++++++++++++++++++++++++++++++++++++++++++++++++++++++++++++++++++++++++++
 Default optimizations:
   -O2 -xHost


 ++++++++++++++++++++++++++++++++++++++++++++++++++++++++++++++++++++++++++++++


 ++++++++++++++++++++++++++++++++++++++++++++++++++++++++++++++++++++++++++++++
 CPP options activated during the build:

                    CC_GNU                   CXX_GNU                  FC_INTEL

          HAVE_DFT_ATOMPAW           HAVE_DFT_BIGDFT            HAVE_DFT_LIBXC

        HAVE_DFT_WANNIER90 HAVE_FC_ALLOCATABLE_DT...           HAVE_FC_CPUTIME

              HAVE_FC_EXIT             HAVE_FC_GAMMA     HAVE_FC_ISO_C_BINDING

        HAVE_FC_LONG_LINES              HAVE_FC_NULL         HAVE_FC_STREAM_IO

               HAVE_LINALG        HAVE_LINALG_SERIAL                  HAVE_MPI

                 HAVE_MPI2               HAVE_MPI_IO HAVE_MPI_TYPE_CREATE_S...

             HAVE_OS_LINUX                HAVE_TIMER         HAVE_TIMER_ABINIT

            HAVE_TIMER_MPI         HAVE_TIMER_SERIAL         HAVE_TRIO_ETSF_IO

          HAVE_TRIO_NETCDF
 ++++++++++++++++++++++++++++++++++++++++++++++++++++++++++++++++++++++++++++++

- input  file    -> t11.in
- output file    -> t1x.outU
- root for input  files -> t1xi
- root for output files -> t1xo

-instrng :    52 lines of input have been read from file t11.in


 iofn2 : Please give name of formatted atomic psp file
 iofn2 : for atom type   1 , psp file is 01h.pspgth
  read the values zionpsp=  1.0 , pspcod=   2 , lmax=   0

 inpspheads : deduce mpsang  =   1, n1xccc  =   0.
 leave_test : synchronization done...

 invars1m : enter jdtset=     0
 invars1 : treat image number     1

 symlatt : the Bravais lattice is oP (primitive orthorhombic)
  xcart  is defined in input file
 ingeo : takes atomic coordinates from input array xcart
 ingeo : WARNING -
 Because icoulomb is 1, the average center of coordinates of the system has been translated to (0.5,0.5,0.5)

 symlatt : the Bravais lattice is oP (primitive orthorhombic)

 symlatt : the Bravais lattice is oP (primitive orthorhombic)

 symbrav : COMMENT -
  The Bravais lattice determined only from the primitive
  vectors, bravais(1)=  3, is more symmetric
  than the real one, iholohedry=  1, obtained by taking into
  account the atomic positions. Start deforming the primitive vector set.

 symlatt : the Bravais lattice is aP (primitive triclinic)
 symspgr : the symmetry operation no.   1 is the identity
 symspgr : spgroup=   1  P1   (=C1^1)
 inkpts: Sum of    1 k point weights is    1.000000
 invars2: take the default value of fband=  1.25000000E-01
 inkpts: Sum of    1 k point weights is    1.000000
  dtset%nelect=   2.00000000000000     
 chkneu : initialized the occupation numbers for occopt=    1
    spin-unpolarized case :
  2.00  0.00
  mpi_setup : enter 
 mpi_setup1: mkmem  undefined in the input file. Use default mkmem  = nkpt
 mpi_setup1: With nkpt_me=    1 and mkmem  =     1, ground state wf handled in core.
 mpi_setup1: mkqmem undefined in the input file. Use default mkqmem = nkpt
 mpi_setup1: With nkpt_me=    1 and mkqmem =     1, ground state wf handled in core.
 mpi_setup1: mk1mem undefined in the input file. Use default mk1mem = nkpt
 mpi_setup1: With nkpt_me=    1 and mk1mem =     1, ground state wf handled in core.

 getng.F90:199:WARNING
   The second and third dimension of the FFT grid,    0    0  were imposed to be multiple of the number of processors for the FFT,    1
 For input ecut=  1.000000E+01 best grid ngfft=      30      32      36
       max ecut=  1.044057E+01

 ==== FFT mesh ====
  FFT mesh divisions ........................    30   32   36
  Augmented FFT divisions ...................    31   33   36
  FFT algorithm .............................   112
  FFT cache size ............................    16
 getmpw: optimal value of mpw=    1003

 Symmetries : space group P1 (#  1); Bravais aP (primitive triclinic)

 getdim_nloc : COMMENT -
  Despite there is only a local part to pseudopotential(s),
  lmnmax and lnmax are set to 1.

 getdim_nloc : deduce lmnmax  =   1, lnmax  =   1,
                      lmnmaxso=   1, lnmaxso=   1.
 setmqgrid : COMMENT -
  The number of points "mqgrid" in reciprocal space used for the
  description of the pseudopotentials has been set automatically
  by abinit to :     3001.
 memory : analysis of memory needs
================================================================================
 Values of the parameters that define the memory need of the present run
   intxc =         0  ionmov =         0    iscf =         7 xclevel =         1
  lmnmax =         1   lnmax =         1   mband =         2  mffmem =         1
P  mgfft =        36   mkmem =         1 mpssoang=         1     mpw =      1003
  mqgrid =      3001   natom =         2    nfft =     34560    nkpt =         1
  nloalg =         4  nspden =         1 nspinor =         1  nsppol =         1
    nsym =         1  n1xccc =         0  ntypat =         1  occopt =         1
================================================================================
P This job should need less than                       9.226 Mbytes of memory.
  Rough estimation (10% accuracy) of disk space for files :
  WF disk file :      0.033 Mbytes ; DEN or POT disk file :      0.266 Mbytes.
================================================================================

 Biggest array : f_fftgr(disk), with      4.2208 MBytes.
 leave_test : synchronization done...
 memana : allocated an array of      4.221 Mbytes, for testing purposes.
 memana : allocated       9.226 Mbytes, for testing purposes.
 The job will continue.
--------------------------------------------------------------------------------
------------- Echo of variables that govern the present computation ------------
--------------------------------------------------------------------------------
-
- outvars: echo of selected default values                                      
-   accesswff0 =  0 , fftalg0 =112 , wfoptalg0 =  0
-
- outvars: echo of global parameters not present in the input file              
-  max_nthreads =    0
-
 -outvars: echo values of preprocessed input variables --------
 
 These variables are accessible in NetCDF format (t1xo_OUT.nc)

            acell      1.0000000000E+01  1.1000000000E+01  1.2000000000E+01 Bohr
              amu      1.00794000E+00
           diemac      2.00000000E+00
             ecut      1.00000000E+01 Hartree
           istwfk        2
           kptopt           0
P           mkmem           1
            natom           2
            nband           2
            ngfft          30      32      36
             nkpt           1
            nstep          20
             nsym           1
           ntypat           1
              occ      2.000000  0.000000
          spgroup           1
           toldfe      1.00000000E-07 Hartree
            typat      1  1
           xangst      2.2754619969E+00  2.9104746472E+00  3.1750632515E+00
                       3.0163100890E+00  2.9104746472E+00  3.1750632515E+00
            xcart      4.3000000000E+00  5.5000000000E+00  6.0000000000E+00
                       5.7000000000E+00  5.5000000000E+00  6.0000000000E+00
             xred      4.3000000000E-01  5.0000000000E-01  5.0000000000E-01
                       5.7000000000E-01  5.0000000000E-01  5.0000000000E-01
            znucl        1.00000

================================================================================
 leave_test : synchronization done...

 chkinp: machine precision is   2.2204460492503131E-16

 chkinp: Checking input parameters for consistency.
 DATA TYPE INFORMATION: 
 REAL:      Data type name: REAL(DP) 
            Kind value:      8
            Precision:      15
            Smallest nonnegligible quantity relative to 1:  0.22204460E-15
            Smallest positive number:                       0.22250739-307
            Largest representable number:                   0.17976931+309
 INTEGER:   Data type name: INTEGER(default) 
            Kind value: 4
            Bit size:   32
            Largest representable number: 2147483647
 LOGICAL:   Data type name: LOGICAL 
            Kind value: 4
 CHARACTER: Data type name: CHARACTER             Kind value: 1
 ==== OpenMP parallelism is OFF ====
 
  ==== Using MPI-2 specifications ==== 
  MPI-IO support is ON
  xmpi_tag_ub ................   2147483647
  xmpi_bsize_ch ..............            1
  xmpi_bsize_int .............            4
  xmpi_bsize_sp ..............            4
  xmpi_bsize_dp ..............            8
  xmpi_bsize_spc .............            8
  xmpi_bsize_dpc .............           16
  xmpio_bsize_frm ............            4
  xmpi_address_kind ..........            8
  xmpi_offset_kind ...........            8
  MPI_WTICK ..................   1.000000000000000E-006
 ==== OpenMP parallelism is OFF ====
 

================================================================================
== DATASET  1 ==================================================================
-   nproc =    1

 setmqgrid : COMMENT -
  The number of points "mqgrid" in reciprocal space used for the
  description of the pseudopotentials has been set automatically
  by abinit to :     3001.

 getdim_nloc : COMMENT -
  Despite there is only a local part to pseudopotential(s),
  lmnmax and lnmax are set to 1.

 getdim_nloc : deduce lmnmax  =   1, lnmax  =   1,
                      lmnmaxso=   1, lnmaxso=   1.
 Exchange-correlation functional for the present dataset will be:
  LDA: new Teter (4/93) with spin-polarized option - ixc=1
 Citation for XC functional:
  S. Goedecker, M. Teter, J. Huetter, PRB 54, 1703 (1996)
 
 Unit cell volume ucvol=  1.3200000E+03 bohr^3
 Angles (23,13,12)=  9.00000000E+01  9.00000000E+01  9.00000000E+01 degrees

 getcut: wavevector=  0.0000  0.0000  0.0000  ngfft=  30  32  36
         ecut(hartree)=     10.000   => boxcut(ratio)=   2.04358
- pspini: atom type   1  psp file is 01h.pspgth
- pspatm: opening atomic psp file    01h.pspgth
- Goedecker-Teter-Hutter  Wed May  8 14:27:44 EDT 1996
-  1.00000   1.00000    960508                znucl, zion, pspdat
    2    1    0    0      2001   0.00000      pspcod,pspxc,lmax,lloc,mmax,r2well
 rloc=   0.2000000
  cc1=  -4.0663326; cc2=   0.6778322; cc3=   0.0000000; cc4=   0.0000000
  rrs=   0.0000000; h1s=   0.0000000; h2s=   0.0000000
  rrp=   0.0000000; h1p=   0.0000000
-  Local part computed in reciprocal space.

 pspatm : COMMENT -
  the projectors are not normalized,
  so that the KB energies are not consistent with 
  definition in PRB44, 8503 (1991). 
  However, this does not influence the results obtained hereafter.
 pspatm: epsatm=   -0.00480358
         --- l  ekb(1:nproj) -->
 pspatm: atomic psp has been read  and splines computed

  -1.92143215E-02                                ecore*ucvol(ha*bohr**3)
 wfconv:     2 bands initialized randomly with npw=  1003, for ikpt=     1
 newkpt: loop on k-points done in parallel
 leave_test : synchronization done...
 pareigocc : MPI_ALLREDUCE
 
 setup2: Arith. and geom. avg. npw (full set) are    2005.000    2005.000
 initro : for itypat=  1, take decay length=      0.6000,
 initro : indeed, coreel=      0.0000, nval=  1 and densty=  0.0000E+00.

================================================================================

 getcut: wavevector=  0.0000  0.0000  0.0000  ngfft=  30  32  36
         ecut(hartree)=     10.000   => boxcut(ratio)=   2.04358

 ewald : nr and ng are    2 and   16

 mkdenpos : WARNING -
  Density went too small (lower than xc_denpos) at       163 points
  and was set to xc_denpos=  1.00E-14.  Lowest was  -0.22E-13.
  Likely due to too low boxcut or too low ecut for pseudopotential core charge.

 ITER STEP NUMBER     1
 xc_type           1          
 realspc           0          
 maxNoep         100          
 optalgo           4          
 E-mstep      0.0001          
 NumGr_N           1          
 NumGr_D    0.000001          
 acuracy       1.d-8          
 vtorho : nnsclo_now= 50, note that nnsclo,dbl_nnsclo,istep= 50 0  1
 leave_test : synchronization done...
 vtorho: loop on k-points and spins done in parallel
 Total charge density [el/Bohr^3]
,     Maximum=    2.9012E-01  at reduced coord.    0.5000    0.5000    0.5000
,     Minimum=    6.2097E-12  at reduced coord.    0.0000    0.3750    0.0000
,  Integrated=    2.0000E+00
 ETOT  0  -1.1012794212783     0.000E+00 5.816E-11 0.000E+00
 scprqt: <Vxc>= -5.3669181E-02 hartree
 vtorho : nnsclo_now= 50, note that nnsclo,dbl_nnsclo,istep= 50 0  2
 leave_test : synchronization done...
 vtorho: loop on k-points and spins done in parallel
 Total charge density [el/Bohr^3]
,     Maximum=    2.9012E-01  at reduced coord.    0.5000    0.5000    0.5000
,     Minimum=    6.2097E-12  at reduced coord.    0.0000    0.3750    0.0000
,  Integrated=    2.0000E+00
 ETOT  0  -1.1012794212783     0.000E+00 5.816E-11 0.000E+00
 scprqt: <Vxc>= -5.3669181E-02 hartree

 At SCF step    0, etot is converged : 
  for the second time, diff in etot=  0.000E+00 < toldfe=  1.000E-07
 vtorho : nnsclo_now= 50, note that nnsclo,dbl_nnsclo,istep= 50 0  3
 leave_test : synchronization done...
 vtorho: loop on k-points and spins done in parallel
 Total charge density [el/Bohr^3]
,     Maximum=    2.9012E-01  at reduced coord.    0.5000    0.5000    0.5000
,     Minimum=    6.2097E-12  at reduced coord.    0.0000    0.3750    0.0000
,  Integrated=    2.0000E+00
 ETOT  0  -1.1012794212783     0.000E+00 5.816E-11 0.000E+00
 scprqt: <Vxc>= -5.3669181E-02 hartree
 gradient            1
RUNNING THE L-BFGS-B CODE

           * * *

Machine precision = 2.220D-16
 N =        34560     M =            7
 This problem is unconstrained.

At X0         0 variables are exactly at the bounds
 vtorho : nnsclo_now= 50, note that nnsclo,dbl_nnsclo,istep= 50 0  4
 leave_test : synchronization done...
 vtorho: loop on k-points and spins done in parallel
 Total charge density [el/Bohr^3]
,     Maximum=    2.9012E-01  at reduced coord.    0.5000    0.5000    0.5000
,     Minimum=    6.2097E-12  at reduced coord.    0.0000    0.3750    0.0000
,  Integrated=    2.0000E+00
 ETOT  0  -1.1012794212783     0.000E+00 5.816E-11 0.000E+00
 scprqt: <Vxc>= -5.3669181E-02 hartree
 vtorho : nnsclo_now= 50, note that nnsclo,dbl_nnsclo,istep= 50 0  1
 leave_test : synchronization done...
 vtorho: loop on k-points and spins done in parallel
