
.Version 7.0.5 of ABINIT 
.(MPI version, prepared for a x86_64_linux_intel13.1 computer) 

.Copyright (C) 1998-2012 ABINIT group . 
 ABINIT comes with ABSOLUTELY NO WARRANTY.
 It is free software, and you are welcome to redistribute it
 under certain conditions (GNU General Public License,
 see ~abinit/COPYING or http://www.gnu.org/copyleft/gpl.txt).

 ABINIT is a project of the Universite Catholique de Louvain,
 Corning Inc. and other collaborators, see ~abinit/doc/developers/contributors.txt .
 Please read ~abinit/doc/users/acknowledgments.html for suggested
 acknowledgments of the ABINIT effort.
 For more information, see http://www.abinit.org .

.Starting date : Tue 26 Nov 2013.
- ( at 21h52 )
  
- input  file    -> t11.in
- output file    -> t1x.out
- root for input  files -> t1xi
- root for output files -> t1xo


 Symmetries : space group P1 (#  1); Bravais aP (primitive triclinic)
================================================================================
 Values of the parameters that define the memory need of the present run
   intxc =         0  ionmov =         0    iscf =         7 xclevel =         1
  lmnmax =         1   lnmax =         1   mband =         9  mffmem =         1
P  mgfft =        36   mkmem =         4 mpssoang=         2     mpw =      1197
  mqgrid =      3001   natom =         4    nfft =     20736    nkpt =         4
  nloalg =         4  nspden =         1 nspinor =         1  nsppol =         1
    nsym =         1  n1xccc =      2501  ntypat =         2  occopt =         1
================================================================================
P This job should need less than                       7.088 Mbytes of memory.
  Rough estimation (10% accuracy) of disk space for files :
  WF disk file :      0.660 Mbytes ; DEN or POT disk file :      0.160 Mbytes.
================================================================================

--------------------------------------------------------------------------------
------------- Echo of variables that govern the present computation ------------
--------------------------------------------------------------------------------
-
- outvars: echo of selected default values                                      
-   accesswff0 =  0 , fftalg0 =112 , wfoptalg0 =  0
-
- outvars: echo of global parameters not present in the input file              
-  max_nthreads =    0
-
 -outvars: echo values of preprocessed input variables --------
            acell      7.5305586395E+00  7.5305586395E+00  1.0658055389E+01 Bohr
              amu      6.94100000E+00  1.89984032E+01
             ecut      1.20000000E+01 Hartree
              kpt      2.50000000E-01  2.50000000E-01  2.50000000E-01
                      -2.50000000E-01  2.50000000E-01  2.50000000E-01
                       2.50000000E-01 -2.50000000E-01  2.50000000E-01
                      -2.50000000E-01 -2.50000000E-01  2.50000000E-01
         kptrlatt        2    0    0      0    2    0      0    0    2
          kptrlen      1.50611173E+01
P           mkmem           4
            natom           4
            nband           9
            ngfft          24      24      36
             nkpt           4
             nsym           1
           ntypat           2
              occ      2.000000  2.000000  2.000000  2.000000  2.000000  2.000000
                       2.000000  2.000000  0.000000
           shiftk      5.00000000E-01  5.00000000E-01  5.00000000E-01
          spgroup           1
           toldfe      1.00000000E-08 Hartree
            typat      1  1  2  2
              wtk        0.25000    0.25000    0.25000    0.25000
           xangst      0.0000000000E+00  0.0000000000E+00  0.0000000000E+00
                       1.9925000000E+00  1.9925000000E+00  2.8200000000E+00
                       1.9925000000E+00  1.9925000000E+00  0.0000000000E+00
                       0.0000000000E+00  0.0000000000E+00  2.8200000000E+00
            xcart      0.0000000000E+00  0.0000000000E+00  0.0000000000E+00
                       3.7652793198E+00  3.7652793198E+00  5.3290276947E+00
                       3.7652793198E+00  3.7652793198E+00  0.0000000000E+00
                       0.0000000000E+00  0.0000000000E+00  5.3290276947E+00
             xred      0.0000000000E+00  0.0000000000E+00  0.0000000000E+00
                       5.0000000000E-01  5.0000000000E-01  5.0000000000E-01
                       5.0000000000E-01  5.0000000000E-01  0.0000000000E+00
                       0.0000000000E+00  0.0000000000E+00  5.0000000000E-01
            znucl        3.00000    9.00000

================================================================================

 chkinp: Checking input parameters for consistency.

================================================================================
== DATASET  1 ==================================================================
-   nproc =    1

 Exchange-correlation functional for the present dataset will be:
  LDA: new Teter (4/93) with spin-polarized option - ixc=1
 Citation for XC functional:
  S. Goedecker, M. Teter, J. Huetter, PRB 54, 1703 (1996)
 
 Real(R)+Recip(G) space primitive vectors, cartesian coordinates (Bohr,Bohr^-1):
 R(1)=  7.5305586  0.0000000  0.0000000  G(1)=  0.1327923  0.0000000  0.0000000
 R(2)=  0.0000000  7.5305586  0.0000000  G(2)=  0.0000000  0.1327923  0.0000000
 R(3)=  0.0000000  0.0000000 10.6580554  G(3)=  0.0000000  0.0000000  0.0938257
 Unit cell volume ucvol=  6.0441100E+02 bohr^3
 Angles (23,13,12)=  9.00000000E+01  9.00000000E+01  9.00000000E+01 degrees

 getcut: wavevector=  0.0000  0.0000  0.0000  ngfft=  24  24  36
         ecut(hartree)=     12.000   => boxcut(ratio)=   2.04375

--- Pseudopotential description ------------------------------------------------
- pspini: atom type   1  psp file is 3li.pspnc
- pspatm: opening atomic psp file    3li.pspnc
-  Troullier-Martins psp for element  Li        Thu Oct 27 17:29:06 EDT 1994
-  3.00000   1.00000    940714                znucl, zion, pspdat
    1    1    1    1      2001   0.00000      pspcod,pspxc,lmax,lloc,mmax,r2well
    0   2.534   6.726    1   2.4315963        l,e99.0,e99.9,nproj,rcpsp
   0.00000000   0.00000000   0.00000000   0.00000000     rms, ekb1, ekb2, epsatm
    1   3.283   5.836    0   2.4315963        l,e99.0,e99.9,nproj,rcpsp
   0.00000000   0.00000000   0.00000000   0.00000000     rms, ekb1, ekb2, epsatm
    2.44451305764117    0.01373030920382    0.17502673260160   rchrg,fchrg,qchrg
 pspatm: epsatm=   -1.77437869
         --- l  ekb(1:nproj) -->
             0    1.242797
 pspatm: atomic psp has been read  and splines computed

- pspini: atom type   2  psp file is 9f.pspnc
- pspatm: opening atomic psp file    9f.pspnc
-  Troullier-Martins psp for element  F         Thu Oct 27 17:30:08 EDT 1994
-  9.00000   7.00000    940714                znucl, zion, pspdat
    1    1    1    1      2001   0.00000      pspcod,pspxc,lmax,lloc,mmax,r2well
    0   6.771  17.439    1   1.3876018        l,e99.0,e99.9,nproj,rcpsp
   0.00000000   0.00000000   0.00000000   0.00000000     rms, ekb1, ekb2, epsatm
    1  24.372  32.350    0   1.3876018        l,e99.0,e99.9,nproj,rcpsp
   0.00000000   0.00000000   0.00000000   0.00000000     rms, ekb1, ekb2, epsatm
    0.49406148701180    6.36128955091623    0.66947621353748   rchrg,fchrg,qchrg
 pspatm: epsatm=    1.80528525
         --- l  ekb(1:nproj) -->
             0    6.310228
 pspatm: atomic psp has been read  and splines computed

   9.89009962E-01                                ecore*ucvol(ha*bohr**3)
--------------------------------------------------------------------------------

P newkpt: treating      9 bands with npw=    1197 for ikpt=   1 by node    0
P newkpt: treating      9 bands with npw=    1197 for ikpt=   2 by node    0
P newkpt: treating      9 bands with npw=    1197 for ikpt=   3 by node    0
P newkpt: treating      9 bands with npw=    1197 for ikpt=   4 by node    0
 
 setup2: Arith. and geom. avg. npw (full set) are    1197.000    1197.000

================================================================================

     iter   Etot(hartree)      deltaE(h)  residm     vres2
 ETOT  1  -38.742381634726    -3.874E+01 8.065E-03 5.540E+03
 ETOT  2  -44.411568892851    -5.669E+00 3.362E-02 2.849E+03
 ETOT  3  -47.014885428224    -2.603E+00 1.187E-02 4.214E+02
 ETOT  4  -47.286678307678    -2.718E-01 5.845E-04 1.503E+02
 ETOT  5  -47.420036918314    -1.334E-01 4.663E-04 2.117E+01
 ETOT  6  -47.442701681552    -2.266E-02 1.201E-04 8.270E-01
 ETOT  7  -47.443528446527    -8.268E-04 9.799E-06 1.509E-02
 ETOT  8  -47.443541223426    -1.278E-05 3.895E-07 6.846E-04
 ETOT  9  -47.443531572641     9.651E-06 1.021E-07 7.380E-03
 ETOT 10  -47.443539708187    -8.136E-06 1.595E-07 1.730E-03
 ETOT 11  -47.443542185439    -2.477E-06 1.886E-08 9.311E-06
 ETOT 12  -47.443542188472    -3.033E-09 1.859E-10 3.617E-06
 ETOT 13  -47.443542193099    -4.627E-09 2.872E-11 3.561E-08

 At SCF step   13, etot is converged : 
  for the second time, diff in etot=  4.627E-09 < toldfe=  1.000E-08

 Cartesian components of stress tensor (hartree/bohr^3)
  sigma(1 1)=  5.88916792E-03  sigma(3 2)= -1.83784511E-10
  sigma(2 2)=  5.88916778E-03  sigma(3 1)=  7.66883711E-11
  sigma(3 3)=  5.96020763E-03  sigma(2 1)= -9.68061050E-11
 
================================================================================

 ----iterations are completed or convergence reached----

 Mean square residual over all n,k,spin=   1.2022E-11; max=  2.8718E-11
   0.2500  0.2500  0.2500    1  2.87064E-11 kpt; spin; max resid(k); each band:
  1.07E-11 6.66E-12 2.86E-11 5.60E-12 7.25E-12 7.18E-12 7.64E-12 5.92E-12
  2.87E-11
  -0.2500  0.2500  0.2500    1  2.87182E-11 kpt; spin; max resid(k); each band:
  1.07E-11 6.66E-12 2.87E-11 5.53E-12 7.21E-12 7.29E-12 7.60E-12 5.85E-12
  2.87E-11
   0.2500 -0.2500  0.2500    1  2.86936E-11 kpt; spin; max resid(k); each band:
  1.07E-11 6.66E-12 2.85E-11 5.68E-12 7.21E-12 7.13E-12 7.60E-12 6.00E-12
  2.87E-11
  -0.2500 -0.2500  0.2500    1  2.87124E-11 kpt; spin; max resid(k); each band:
  1.07E-11 6.66E-12 2.86E-11 5.59E-12 7.25E-12 7.19E-12 7.64E-12 5.91E-12
  2.87E-11
 reduced coordinates (array xred) for    4 atoms
       0.000000000000      0.000000000000      0.000000000000
       0.500000000000      0.500000000000      0.500000000000
       0.500000000000      0.500000000000      0.000000000000
       0.000000000000      0.000000000000      0.500000000000
 rms dE/dt=  1.4360E-06; max dE/dt=  3.3020E-06; dE/dt below (all hartree)
    1       0.000000083069      0.000000121418     -0.000000746371
    2       0.000000075442      0.000000002853      0.000000761162
    3      -0.000000657443     -0.000000196411      0.000003301990
    4       0.000000416664      0.000000230925     -0.000003461176
 
 cartesian coordinates (angstrom) at end:
    1      0.00000000000000     0.00000000000000     0.00000000000000
    2      1.99250000000000     1.99250000000000     2.82000000000000
    3      1.99250000000000     1.99250000000000     0.00000000000000
    4      0.00000000000000     0.00000000000000     2.82000000000000

 cartesian forces (hartree/bohr) at end:
    1     -0.00000001376209    -0.00000001085199     0.00000006664182
    2     -0.00000001274921     0.00000000489249    -0.00000007480360
    3      0.00000008457224     0.00000003135322    -0.00000031319863
    4     -0.00000005806093    -0.00000002539371     0.00000032136041
 frms,max,avg= 1.3664054E-07 3.2136041E-07   2.731E-09 -5.271E-09  3.387E-09 h/b

 cartesian forces (eV/Angstrom) at end:
    1     -0.00000070767507    -0.00000055803176     0.00000342685992
    2     -0.00000065559094     0.00000025158176    -0.00000384655548
    3      0.00000434887903     0.00000161224714    -0.00001610531964
    4     -0.00000298561302    -0.00000130579713     0.00001652501519
 frms,max,avg= 7.0263384E-06 1.6525015E-05   1.404E-07 -2.711E-07  1.742E-07 e/A
 length scales=  7.530558639549  7.530558639549 10.658055389475 bohr
              =  3.985000000000  3.985000000000  5.640000000000 angstroms
 prteigrs : about to open file t1xo_EIG
 Fermi (or HOMO) energy (hartree) =  -0.11512   Average Vxc (hartree)=  -0.24348
 Eigenvalues (hartree) for nkpt=   4  k points:
 kpt#   1, nband=  9, wtk=  0.25000, kpt=  0.2500  0.2500  0.2500 (reduced coord)
  -1.11531  -1.11512  -0.14456  -0.14039  -0.13737  -0.12162  -0.11950  -0.11512
   0.05773
 kpt#   2, nband=  9, wtk=  0.25000, kpt= -0.2500  0.2500  0.2500 (reduced coord)
  -1.11531  -1.11512  -0.14456  -0.14039  -0.13737  -0.12162  -0.11950  -0.11512
   0.05773
 kpt#   3, nband=  9, wtk=  0.25000, kpt=  0.2500 -0.2500  0.2500 (reduced coord)
  -1.11531  -1.11512  -0.14456  -0.14039  -0.13737  -0.12162  -0.11950  -0.11512
   0.05773
 kpt#   4, nband=  9, wtk=  0.25000, kpt= -0.2500 -0.2500  0.2500 (reduced coord)
  -1.11531  -1.11512  -0.14456  -0.14039  -0.13737  -0.12162  -0.11950  -0.11512
   0.05773
 Total charge density [el/Bohr^3]
,     Maximum=    9.9596E-01  at reduced coord.    0.9583    0.0417    0.4722
,Next maximum=    9.9596E-01  at reduced coord.    0.0417    0.0417    0.4722
,     Minimum=    6.4834E-05  at reduced coord.    0.0000    0.0000    0.0000
,Next minimum=    6.4835E-05  at reduced coord.    0.5000    0.5000    0.5000
,  Integrated=    1.6000E+01

--------------------------------------------------------------------------------
 Components of total free energy (in Hartree) :

    Kinetic energy  =  2.56379121120602E+01
    Hartree energy  =  1.96241746254487E+01
    XC energy       = -1.04830293996086E+01
    Ewald energy    = -2.29521610905308E+01
    PspCore energy  =  1.63632024617778E-03
    Loc. psp. energy= -6.63233183973417E+01
    NL   psp  energy=  7.05124363662708E+00
    >>>>>>>>> Etotal= -4.74435421930988E+01

 Other information on the energy :
    Total energy(eV)= -1.29100443829452E+03 ; Band energy (Ha)=  -6.0180004784E+00
--------------------------------------------------------------------------------

 Cartesian components of stress tensor (hartree/bohr^3)
  sigma(1 1)=  5.88916792E-03  sigma(3 2)= -1.83784511E-10
  sigma(2 2)=  5.88916778E-03  sigma(3 1)=  7.66883711E-11
  sigma(3 3)=  5.96020763E-03  sigma(2 1)= -9.68061050E-11

-Cartesian components of stress tensor (GPa)         [Pressure= -1.7396E+02 GPa]
- sigma(1 1)=  1.73265273E+02  sigma(3 2)= -5.40712609E-06
- sigma(2 2)=  1.73265269E+02  sigma(3 1)=  2.25624939E-06
- sigma(3 3)=  1.75355333E+02  sigma(2 1)= -2.84813346E-06

== END DATASET(S) ==============================================================
================================================================================
  
 -outvars: echo values of variables after computation  --------
            acell      7.5305586395E+00  7.5305586395E+00  1.0658055389E+01 Bohr
              amu      6.94100000E+00  1.89984032E+01
             ecut      1.20000000E+01 Hartree
           etotal     -4.7443542193E+01
            fcart     -1.3762090187E-08 -1.0851990947E-08  6.6641820884E-08
                      -1.2749214961E-08  4.8924866379E-09 -7.4803600672E-08
                       8.4572239142E-08  3.1353217684E-08 -3.1319862791E-07
                      -5.8060933994E-08 -2.5393713375E-08  3.2136040770E-07
              kpt      2.50000000E-01  2.50000000E-01  2.50000000E-01
                      -2.50000000E-01  2.50000000E-01  2.50000000E-01
                       2.50000000E-01 -2.50000000E-01  2.50000000E-01
                      -2.50000000E-01 -2.50000000E-01  2.50000000E-01
         kptrlatt        2    0    0      0    2    0      0    0    2
          kptrlen      1.50611173E+01
P           mkmem           4
            natom           4
            nband           9
            ngfft          24      24      36
             nkpt           4
             nsym           1
           ntypat           2
              occ      2.000000  2.000000  2.000000  2.000000  2.000000  2.000000
                       2.000000  2.000000  0.000000
           shiftk      5.00000000E-01  5.00000000E-01  5.00000000E-01
          spgroup           1
           strten      5.8891679158E-03  5.8891677845E-03  5.9602076269E-03
                      -1.8378451110E-10  7.6688371099E-11 -9.6806104987E-11
           toldfe      1.00000000E-08 Hartree
            typat      1  1  2  2
              wtk        0.25000    0.25000    0.25000    0.25000
           xangst      0.0000000000E+00  0.0000000000E+00  0.0000000000E+00
                       1.9925000000E+00  1.9925000000E+00  2.8200000000E+00
                       1.9925000000E+00  1.9925000000E+00  0.0000000000E+00
                       0.0000000000E+00  0.0000000000E+00  2.8200000000E+00
            xcart      0.0000000000E+00  0.0000000000E+00  0.0000000000E+00
                       3.7652793198E+00  3.7652793198E+00  5.3290276947E+00
                       3.7652793198E+00  3.7652793198E+00  0.0000000000E+00
                       0.0000000000E+00  0.0000000000E+00  5.3290276947E+00
             xred      0.0000000000E+00  0.0000000000E+00  0.0000000000E+00
                       5.0000000000E-01  5.0000000000E-01  5.0000000000E-01
                       5.0000000000E-01  5.0000000000E-01  0.0000000000E+00
                       0.0000000000E+00  0.0000000000E+00  5.0000000000E-01
            znucl        3.00000    9.00000

================================================================================


- Timing analysis has been suppressed with timopt=0



================================================================================

 Suggested references for the acknowledgment of ABINIT usage.

 The users of ABINIT have little formal obligations with respect to the ABINIT group
 (those specified in the GNU General Public License, http://www.gnu.org/copyleft/gpl.txt).
 However, it is common practice in the scientific literature,
 to acknowledge the efforts of people that have made the research possible.
 In this spirit, please find below suggested citations of work written by ABINIT developers,
 corresponding to implementations inside of ABINIT that you have used in the present run.
 Note also that it will be of great value to readers of publications presenting these results,
 to read papers enabling them to understand the theoretical formalism and details
 of the ABINIT implementation.
 For information on why they are suggested, see also http://www.abinit.org/about/?text=acknowledgments.

 [1] ABINIT : First-principles approach of materials and nanosystem properties.
 X. Gonze, B. Amadon, P.-M. Anglade, J.-M. Beuken, F. Bottin, P. Boulanger, F. Bruneval,
 D. Caliste, R. Caracas, M. Cote, T. Deutsch, L. Genovese, Ph. Ghosez, M. Giantomassi
 S. Goedecker, D.R. Hamann, P. Hermet, F. Jollet, G. Jomard, S. Leroux, M. Mancini, S. Mazevet,
 M.J.T. Oliveira, G. Onida, Y. Pouillon, T. Rangel, G.-M. Rignanese, D. Sangalli, R. Shaltaf,
 M. Torrent, M.J. Verstraete, G. Zerah, J.W. Zwanziger
 Computer Phys. Comm. 180, 2582-2615 (2009).
 Comment : the third generic paper describing the ABINIT project.
 Note that a version of this paper, that is not formatted for Computer Phys. Comm. 
 is available at http://www.abinit.org/about/ABINIT_CPC_v10.pdf .
 The licence allows the authors to put it on the Web.

 [2] A brief introduction to the ABINIT software package.
 X. Gonze, G.-M. Rignanese, M. Verstraete, J.-M. Beuken, Y. Pouillon, R. Caracas, F. Jollet,
 M. Torrent, G. Zerah, M. Mikami, Ph. Ghosez, M. Veithen, J.-Y. Raty, V. Olevano, F. Bruneval,
 L. Reining, R. Godby, G. Onida, D.R. Hamann, and D.C. Allan.
 Z. Kristallogr. 220, 558-562 (2005).
 Comment : the second generic paper describing the ABINIT project. Note that this paper
 should be cited especially if you are using the GW part of ABINIT, as several authors
 of this part are not in the list of authors of the first or third paper.
 The .pdf of the latter paper is available at http://www.abinit.org/about/zfk_0505-06_558-562.pdf.
 Note that it should not redistributed (Copyright by Oldenburg Wissenshaftverlag,
 the licence allows the authors to put it on the Web).


 And optionally :

 [3] First-principles computation of material properties : the ABINIT software project. 
 X. Gonze, J.-M. Beuken, R. Caracas, F. Detraux, M. Fuchs, G.-M. Rignanese, L. Sindic,
 M. Verstraete, G. Zerah, F. Jollet, M. Torrent, A. Roy, M. Mikami, Ph. Ghosez, J.-Y. Raty, D.C. Allan.
 Computational Materials Science 25, 478-492 (2002). http://dx.doi.org/10.1016/S0927-0256(02)00325-7
 Comment : the original paper describing the ABINIT project.

 [4] Fast radix 2, 3, 4 and 5 kernels for Fast Fourier Transformations
 on computers with overlapping multiply-add instructions.
 S. Goedecker, SIAM J. on Scientific Computing 18, 1605 (1997).
-
- Proc.   0 individual time (sec): cpu=          1.6  wall=          1.6

================================================================================

 Calculation completed.
.Delivered    1 WARNINGs and   4 COMMENTs to log file.
+Overall time at end (sec) : cpu=          1.6  wall=          1.6
